                              Psi4 0.1.86 Driver

  ==> Input File <==

--------------------------------------------------------------------------
molecule {
0 1
    O         0.000000000000     0.000000000000    -0.116529192243
    H        -0.000000000000     1.344767972762     0.924701422022
    F        -0.000000000000    -1.344767972762     0.924701422022
no_reorient
no_com
units bohr
#symmetry c1
}

set {
  reference rhf
  basis sto-3g
  freeze_core true
  r_convergence 1e-15
  e_convergence 1e-15
}

energy('ccsd(t)')

--------------------------------------------------------------------------

    Molecular point group: cs

    Geometry (in Bohr), charge = 0, multiplicity = 1:

       Center              X                  Y                   Z
    ------------   -----------------  -----------------  -----------------
           O          0.000000000000     0.000000000000    -0.116529192243
           H          0.000000000000     1.344767972762     0.924701422022
           F          0.000000000000    -1.344767972762     0.924701422022

  Charge       = 0
  Multiplicity = 1
  Basis Set: STO-3G
  Basis Set:

    Orbital Energies (a.u.)
    -----------------------

    Doubly Occupied:

       1Ap   -26.127734     2Ap   -20.491481     3Ap    -2.116318
       4Ap    -1.120312     5Ap    -0.928926     1App   -0.902158
       6Ap    -0.758964     7Ap    -0.329687     2App   -0.245294

  @RHF Final Energy:  -171.57054018591631

   => Energetics <=

    Nuclear Repulsion Energy =             50.3842798697334970
    One-Electron Energy =                -337.8678935877755976
    Two-Electron Energy =                 115.9130735321258783
    DFT Exchange-Correlation Energy =       0.0000000000000000
    Empirical Dispersion Energy =           0.0000000000000000
    PCM Polarization Energy =               0.0000000000000000
    EFP Energy =                            0.0000000000000000
    Total Energy =                       -171.5705401859162009
      * MP2 total energy                      = -171.599196051919336
      * CCSD total energy                     = -171.609302075398062
      * CCSD(T) total energy          = -171.609511721152501
